 &FCI NORB=          28 , NELEC=          12 , MS2=           0 ,
 ORBSYM=1,1,1,1,1,1,1,1,1,1,1,1,1,1,1,1,1,1,1,1,1,1,1,1,1,1,1,1,
 ISYM=0,
 /
   1.96587478092938                1           1           1           1
 -5.270323088018964E-005           2           1           1           1
  0.174458855126120                3           1           1           1
  7.621191043132025E-006           4           1           1           1
  3.441441395372582E-002           7           1           1           1
 -4.648394938840204E-006          10           1           1           1
 -1.088216848956360E-002          11           1           1           1
  0.133513471460174               14           1           1           1
 -2.367097431815735E-007          17           1           1           1
  7.159972831851172E-006          20           1           1           1
 -5.100087019371813E-015          23           1           1           1
  1.007741016730010E-002          25           1           1           1
 -3.670651422288396E-006          28           1           1           1
   1.54104572868740                2           1           2           1
 -3.122065461630408E-006           3           1           2           1
 -0.146445687250120                4           1           2           1
 -3.362187659394777E-007           7           1           2           1
  9.021146025730185E-002          10           1           2           1
 -2.958804079522537E-008          11           1           2           1
 -2.197747997905591E-006          14           1           2           1
  9.358638837400832E-003          17           1           2           1
  5.349887199912473E-015          18           1           2           1
 -0.140627674207062               20           1           2           1
  1.904726376622534E-015          23           1           2           1
 -1.554543384504892E-007          25           1           2           1
  7.794068629454332E-002          28           1           2           1
  3.102185679674998E-002           3           1           3           1
  7.699611819754482E-007           4           1           3           1
 -2.675142880035650E-004           7           1           3           1
 -5.090246251895740E-007          10           1           3           1
  3.583369447855210E-003          11           1           3           1
  1.905045857101501E-002          14           1           3           1
 -2.203366624509498E-007          17           1           3           1
  8.112456059015049E-007          20           1           3           1
  2.121343714670336E-003          25           1           3           1
 -6.708162311208112E-007          28           1           3           1
  2.258882047923219E-002           4           1           4           1
  2.782365909359021E-007           7           1           4           1
 -1.297788752018980E-002          10           1           4           1
 -1.686936097378307E-007          11           1           4           1
  6.856854132646084E-007          14           1           4           1
  4.970186444756063E-003          17           1           4           1
  1.784383533761320E-002          20           1           4           1
 -6.273692447489321E-009          25           1           4           1
 -1.732947434293999E-003          28           1           4           1
  9.843721352217134E-003           5           1           5           1
 -2.709331100693782E-007           8           1           5           1
 -1.092678923831714E-007           9           1           5           1
  2.378104895072890E-015          11           1           5           1
 -1.066225403833109E-002          12           1           5           1
  3.860535203692164E-003          13           1           5           1
  1.541035931119313E-015          14           1           5           1
 -1.679135110423374E-007          15           1           5           1
 -4.223058374490385E-007          16           1           5           1
 -4.942896356360389E-003          21           1           5           1
 -1.059212313445399E-003          22           1           5           1
  1.175397274250090E-015          25           1           5           1
 -5.942230414475902E-008          26           1           5           1
 -1.953695506247670E-007          27           1           5           1
  9.843721352216870E-003           6           1           6           1
 -1.092678939386763E-007           8           1           6           1
  2.709331043308045E-007           9           1           6           1
 -3.860535203692205E-003          12           1           6           1
 -1.066225403833096E-002          13           1           6           1
  4.223058269273172E-007          15           1           6           1
 -1.679135140084977E-007          16           1           6           1
 -1.059212313445358E-003          21           1           6           1
  4.942896356360566E-003          22           1           6           1
  1.953695422137857E-007          26           1           6           1
 -5.942230726866396E-008          27           1           6           1
  1.109310424799227E-002           7           1           7           1
 -9.581456464764467E-008          10           1           7           1
 -1.004180020271903E-002          11           1           7           1
  8.090609110495296E-003          14           1           7           1
  4.378386489617414E-007          17           1           7           1
  2.217240254744589E-008          20           1           7           1
 -2.247364676432710E-003          25           1           7           1
  5.720770469216929E-007          28           1           7           1
  7.509930948573825E-003           8           1           8           1
  3.386517963589741E-007          12           1           8           1
  1.218266674833082E-008          13           1           8           1
 -5.749857804951739E-005          15           1           8           1
  1.172369296031654E-002          16           1           8           1
  1.540009257504013E-007          21           1           8           1
 -2.679256159315337E-008          22           1           8           1
  1.022944093160228E-015          25           1           8           1
 -4.525094413939860E-004          26           1           8           1
  5.123785055103951E-003          27           1           8           1
  7.509930948573743E-003           9           1           9           1
  1.218266648363641E-008          12           1           9           1
 -3.386518002692280E-007          13           1           9           1
  1.172369296031655E-002          15           1           9           1
  5.749857804951701E-005          16           1           9           1
  2.679256179554681E-008          21           1           9           1
  1.540009304527183E-007          22           1           9           1
  5.123785055104055E-003          26           1           9           1
  4.525094413939981E-004          27           1           9           1
  7.915627561394006E-003          10           1          10           1
  3.190845021018573E-008          11           1          10           1
 -3.860633792679858E-007          14           1          10           1
 -2.007474761299569E-004          17           1          10           1
 -1.157898596006869E-002          20           1          10           1
 -1.486919564745400E-008          25           1          10           1
  5.089023845957344E-003          28           1          10           1
  9.533038883596554E-003          11           1          11           1
 -5.232938585800987E-003          14           1          11           1
 -4.220650433664486E-007          17           1          11           1
  6.874822298008794E-008          20           1          11           1
  2.322853555585440E-003          25           1          11           1
 -6.018827640834334E-007          28           1          11           1
  1.314093964708631E-002          12           1          12           1
 -1.364928956572666E-015          14           1          12           1
  1.644401888235229E-008          15           1          12           1
  5.293582855912804E-007          16           1          12           1
  5.815207067424415E-003          21           1          12           1
 -7.975223189644670E-004          22           1          12           1
 -1.086972949856554E-015          25           1          12           1
 -1.247728373119966E-008          26           1          12           1
  2.391398596254136E-007          27           1          12           1
  1.314093964708643E-002          13           1          13           1
 -5.293582898838435E-007          15           1          13           1
  1.644401918956097E-008          16           1          13           1
 -7.975223189644517E-004          21           1          13           1
 -5.815207067424739E-003          22           1          13           1
 -2.391398566638410E-007          26           1          13           1
 -1.247728372687641E-008          27           1          13           1
  1.798947331927576E-002          14           1          14           1
  1.972181971534454E-007          17           1          14           1
  5.239320824187294E-007          20           1          14           1
 -3.504551974445413E-004          25           1          14           1
  1.343103778889132E-008          28           1          14           1
  1.837357490939927E-002          15           1          15           1
  4.059552403856324E-008          21           1          15           1
  2.403125743287497E-007          22           1          15           1
  8.093622107654699E-003          26           1          15           1
  6.748047049740985E-004          27           1          15           1
  1.837357490939905E-002          16           1          16           1
  1.852323524258815E-015          20           1          16           1
  2.403125677506376E-007          21           1          16           1
 -4.059552376005880E-008          22           1          16           1
 -6.748047049741087E-004          26           1          16           1
  8.093622107654437E-003          27           1          16           1
 -2.072837031982663E-015          28           1          16           1
  1.669041310165873E-002          17           1          17           1
 -3.998106282302016E-003          20           1          17           1
 -1.186549436885717E-007          25           1          17           1
  2.387631507837193E-002          28           1          17           1
  2.958021134735675E-004          18           1          18           1
  1.196518741291425E-015          20           1          18           1
 -1.039679214381449E-008          23           1          18           1
 -2.543144771220949E-009          24           1          18           1
 -2.557063718752750E-015          28           1          18           1
  2.958021134735644E-004          19           1          19           1
 -2.543144771506611E-009          23           1          19           1
  1.039679214393318E-008          24           1          19           1
  1.853535714894183E-002          20           1          20           1
  6.468504015673957E-008          25           1          20           1
 -1.390101788875267E-002          28           1          20           1
  3.078213808075743E-003          21           1          21           1
  8.091982593082204E-009          26           1          21           1
  9.591644687507371E-008          27           1          21           1
  3.078213808076018E-003          22           1          22           1
  9.591644763982016E-008          26           1          22           1
 -8.091982532155971E-009          27           1          22           1
  3.439499159453171E-004          23           1          23           1
  2.252579091137352E-015          25           1          23           1
 -1.763305755748956E-015          28           1          23           1
  3.439499159453167E-004          24           1          24           1
  1.560935264506200E-003          25           1          25           1
 -1.764714738679285E-007          28           1          25           1
  4.026339712595172E-003          26           1          26           1
  4.026339712594992E-003          27           1          27           1
  3.913031497239807E-002          28           1          28           1
   1.96699249639873                2           2           1           1
 -3.251748304164415E-006           3           2           1           1
 -0.153076757328639                4           2           1           1
 -8.924631812734507E-008           7           2           1           1
  9.133164366750418E-002          10           2           1           1
 -2.386378105401210E-007          11           2           1           1
 -2.111195720404246E-006          14           2           1           1
 -5.388642225706078E-003          17           2           1           1
  9.582612481295882E-015          18           2           1           1
  2.416469802035692E-015          19           2           1           1
 -0.137752995531154               20           2           1           1
  3.070460552478949E-015          23           2           1           1
 -1.433210605195079E-007          25           2           1           1
  5.886144901687948E-002          28           2           1           1
  5.266463945328878E-005           2           2           2           1
  0.182240470431200                3           2           2           1
 -2.503400477481960E-006           4           2           2           1
  1.996185386406536E-002           7           2           2           1
  1.538112914184660E-006          10           2           2           1
  1.390509566763565E-003          11           2           2           1
  0.128523140431752               14           2           2           1
  1.511480938742871E-007          17           2           2           1
 -2.403646707518914E-006          20           2           2           1
 -2.194425197110661E-015          23           2           2           1
  9.331248697835347E-003          25           2           2           1
  1.330351866557500E-006          28           2           2           1
  2.236350198775439E-009           3           2           3           1
 -2.241092274752050E-002           4           2           3           1
 -8.000724589785069E-009           7           2           3           1
  1.485710106758897E-002          10           2           3           1
  6.485529453759131E-009          11           2           3           1
 -3.506159809967685E-009          14           2           3           1
  6.667206215890694E-003          17           2           3           1
 -2.377465552743964E-002          20           2           3           1
 -1.037940333724688E-011          25           2           3           1
  1.996559753175372E-002          28           2           3           1
 -3.451016771828519E-009           4           2           4           1
 -7.926404167573156E-003           7           2           4           1
  1.375360307413753E-009          10           2           4           1
  4.749702049328605E-003          11           2           4           1
 -1.998055550980594E-002          14           2           4           1
 -6.238984202530662E-009          17           2           4           1
  1.547578730529825E-009          20           2           4           1
  2.022774172364559E-004          25           2           4           1
 -1.043566891928416E-008          28           2           4           1
  8.820098581184543E-009           5           2           5           1
 -9.691900060282421E-015           6           2           5           1
  8.101501738011175E-003           8           2           5           1
  3.267352726132132E-003           9           2           5           1
 -7.158148693578448E-009          12           2           5           1
  2.591794304157959E-009          13           2           5           1
  5.023976995450053E-003          15           2           5           1
  1.263540231731613E-002          16           2           5           1
 -1.262143772464340E-015          20           2           5           1
 -1.281356766351383E-009          21           2           5           1
 -2.745841634036079E-010          22           2           5           1
  1.780894871946151E-003          26           2           5           1
  5.855252825096179E-003          27           2           5           1
 -4.540071005912210E-015          28           2           5           1
  8.820124197195592E-009           6           2           6           1
  3.267352726132167E-003           8           2           6           1
 -8.101501738010981E-003           9           2           6           1
 -2.591787099173737E-009          12           2           6           1
 -7.158172195754402E-009          13           2           6           1
 -1.263540231731600E-002          15           2           6           1
  5.023976995450111E-003          16           2           6           1
  2.057490158010913E-015          20           2           6           1
 -2.745807567861719E-010          21           2           6           1
  1.281363933849314E-009          22           2           6           1
 -5.855252825096229E-003          26           2           6           1
  1.780894871946123E-003          27           2           6           1
 -2.351245179039809E-015          28           2           6           1
  1.748909165492224E-008           7           2           7           1
  2.832818739826558E-003          10           2           7           1
 -1.478934624071782E-008          11           2           7           1
  5.686645739369500E-009          14           2           7           1
 -1.331985305035683E-002          17           2           7           1
 -5.823815256811290E-004          20           2           7           1
  1.454643616660960E-009          25           2           7           1
 -1.739226727561569E-002          28           2           7           1
 -4.516141446052335E-009           8           2           8           1
 -9.682951645640722E-003          12           2           8           1
 -3.483346967651176E-004          13           2           8           1
  2.189649970510800E-015          14           2           8           1
  2.753532113691087E-011          15           2           8           1
 -5.614060796105269E-009          16           2           8           1
 -4.493982591645626E-003          21           2           8           1
  7.818479236199534E-004          22           2           8           1
 -1.023414412348914E-015          25           2           8           1
  3.218920593668715E-010          26           2           8           1
 -3.644794543552819E-009          27           2           8           1
 -4.516155493160335E-009           9           2           9           1
 -3.483346967651347E-004          12           2           9           1
  9.682951645640703E-003          13           2           9           1
 -5.614081407344222E-009          15           2           9           1
 -2.753290791971535E-011          16           2           9           1
 -7.818479236199391E-004          21           2           9           1
 -4.493982591645827E-003          22           2           9           1
 -3.644800258664532E-009          26           2           9           1
 -3.218918584438801E-010          27           2           9           1
 -8.320786698410220E-010          10           2          10           1
 -8.923883637717699E-004          11           2          10           1
  1.126196383483308E-002          14           2          10           1
  1.367972886877344E-009          17           2          10           1
  3.042466913171296E-011          20           2          10           1
  4.424536018214383E-004          25           2          10           1
  2.671056134086192E-009          28           2          10           1
  1.246456219228947E-008          11           2          11           1
 -4.852461237946776E-009          14           2          11           1
  1.277448398574690E-002          17           2          11           1
 -2.061577534037353E-003          20           2          11           1
 -1.318592823660756E-009          25           2          11           1
  1.815859095862634E-002          28           2          11           1
  6.097256330037104E-009          12           2          12           1
 -4.891298407797370E-004          15           2          12           1
 -1.574584257170796E-002          16           2          12           1
  1.226350404309501E-015          20           2          12           1
  6.974020670853787E-010          21           2          12           1
 -9.564477205029065E-011          22           2          12           1
  3.715180752657454E-004          26           2          12           1
 -7.120522507160884E-003          27           2          12           1
  4.278440269937439E-015          28           2          12           1
  6.097270777184365E-009          13           2          13           1
  1.574584257170812E-002          15           2          13           1
 -4.891298407797779E-004          16           2          13           1
 -9.564502891133784E-011          21           2          13           1
 -6.974046445490389E-010          22           2          13           1
  7.120522507161105E-003          26           2          13           1
  3.715180752657543E-004          27           2          13           1
  1.126195840793834E-009          14           2          14           1
 -5.940314449945143E-003          17           2          14           1
 -1.531565427894558E-002          20           2          14           1
  9.760115306017489E-010          25           2          14           1
 -5.685359210254892E-004          28           2          14           1
 -6.519045273568148E-009          15           2          15           1
  1.734940316411304E-015          16           2          15           1
 -1.187657639781545E-003          21           2          15           1
 -7.030554930512615E-003          22           2          15           1
 -4.597323999787351E-009          26           2          15           1
 -3.833007885970050E-010          27           2          15           1
 -6.519015131531414E-009          16           2          16           1
 -7.030554930512214E-003          21           2          16           1
  1.187657639781586E-003          22           2          16           1
 -2.709187015564315E-015          25           2          16           1
  3.833010725766590E-010          26           2          16           1
 -4.597315977572188E-009          27           2          16           1
 -1.452611506427837E-008          17           2          17           1
  3.876355004995766E-009          20           2          17           1
  3.562250544259567E-003          25           2          17           1
 -2.127086105169207E-008          28           2          17           1
  2.815819314980314E-010          18           2          18           1
  3.084704910156421E-004          23           2          18           1
  7.545453496648897E-005          24           2          18           1
 -1.510171653527903E-015          25           2          18           1
  2.815819252028826E-010          19           2          19           1
  7.545453496648954E-005          23           2          19           1
 -3.084704910156402E-004          24           2          19           1
 -3.850217166032240E-010          20           2          20           1
 -1.922797972271009E-003          25           2          20           1
  4.068038348889469E-009          28           2          20           1
  6.545055237800607E-010          21           2          21           1
 -2.382090434429188E-004          26           2          21           1
 -2.823555904908607E-003          27           2          21           1
  6.545048266719451E-010          22           2          22           1
 -2.823555904908859E-003          26           2          22           1
  2.382090434429028E-004          27           2          22           1
  6.611949675923087E-012          23           2          23           1
  2.509643426233665E-015          28           2          23           1
  6.611954829771155E-012          24           2          24           1
  9.666002605181545E-010          25           2          25           1
  5.119883732179686E-003          28           2          25           1
 -2.904840511359918E-009          26           2          26           1
 -2.904839630643224E-009          27           2          27           1
 -2.987951696828417E-008          28           2          28           1
  0.702107975906874                3           3           1           1
  5.509495090497141E-006           4           3           1           1
 -9.488269497396681E-002           7           3           1           1
 -3.054854815619928E-006          10           3           1           1
  7.015218902996229E-002          11           3           1           1
  0.130502245342036               14           3           1           1
 -2.580927383533105E-006          17           3           1           1
 -2.886579864025407E-015          18           3           1           1
  5.208286853790323E-006          20           3           1           1
  3.302913498259841E-014          23           3           1           1
 -4.139815502094302E-003          25           3           1           1
 -4.278988748107615E-006          28           3           1           1
 -7.516234816831724E-009           3           3           2           1
 -0.161283391300073                4           3           2           1
  1.916208450594703E-009           7           3           2           1
  8.933934101707473E-002          10           3           2           1
 -5.342988485673716E-009          11           3           2           1
  1.711004296578444E-009          14           3           2           1
  7.535259018581715E-002          17           3           2           1
 -1.784683512084939E-014          18           3           2           1
 -4.501607420159814E-015          19           3           2           1
 -0.152339993859982               20           3           2           1
 -3.698430450782553E-015          23           3           2           1
  4.853908931040651E-009          25           3           2           1
  0.125172936195319               28           3           2           1
 -7.444155186770349E-004           3           3           3           1
  1.431386967682378E-007           4           3           3           1
  6.258001871432464E-003           7           3           3           1
 -7.424728952989024E-008          10           3           3           1
 -2.742561549207202E-003          11           3           3           1
 -2.462794867972797E-015          12           3           3           1
  4.284876361233252E-003          14           3           3           1
 -1.530897397565567E-009          17           3           3           1
  9.844049922728883E-008          20           3           3           1
  3.376811638094145E-003          25           3           3           1
 -6.129752977770964E-008          28           3           3           1
  2.714649497151221E-003           4           3           4           1
 -1.190559405091999E-007           7           3           4           1
 -3.277356205684882E-003          10           3           4           1
  8.851455484586504E-008          11           3           4           1
  8.155192397730701E-008          14           3           4           1
 -4.657185620869533E-003          17           3           4           1
  6.720029707038855E-003          20           3           4           1
 -3.273213745519691E-008          25           3           4           1
 -8.290924080994563E-003          28           3           4           1
 -1.465111416424196E-002           5           3           5           1
  1.270649090797868E-007           8           3           5           1
  5.124554648314704E-008           9           3           5           1
  7.810003665433459E-003          12           3           5           1
 -2.827806764215014E-003          13           3           5           1
  4.968945970548581E-008          15           3           5           1
  1.249699838473672E-007          16           3           5           1
 -2.663384589696392E-003          21           3           5           1
 -5.707361735830457E-004          22           3           5           1
  2.221317351195837E-008          26           3           5           1
  7.303281126317112E-008          27           3           5           1
 -1.465111416424170E-002           6           3           6           1
 -2.895405004412612E-015           7           3           6           1
  5.124554580205123E-008           8           3           6           1
 -1.270649116130387E-007           9           3           6           1
  2.827806764214981E-003          12           3           6           1
  7.810003665433605E-003          13           3           6           1