 &FCI NORB=          28 , NELEC=          12 , MS2=           0 ,
 ORBSYM=1,1,1,1,1,1,1,1,1,1,1,1,1,1,1,1,1,1,1,1,1,1,1,1,1,1,1,1,
 ISYM=0,
 /
   1.96587478092938                1           1           1           1
 -5.270323088018964E-005           2           1           1           1
  0.174458855126120                3           1           1           1
  7.621191043132025E-006           4           1           1           1
  3.441441395372582E-002           7           1           1           1
 -4.648394938840204E-006          10           1           1           1
 -1.088216848956360E-002          11           1           1           1
  0.133513471460174               14           1           1           1
 -2.367097431815735E-007          17           1           1           1
  7.159972831851172E-006          20           1           1           1
 -5.100087019371813E-015          23           1           1           1
  1.007741016730010E-002          25           1           1           1
 -3.670651422288396E-006          28           1           1           1
   1.54104572868740                2           1           2           1
 -3.122065461630408E-006           3           1           2           1
 -0.146445687250120                4           1           2           1
 -3.362187659394777E-007           7           1           2           1
  9.021146025730185E-002          10           1           2           1
 -2.958804079522537E-008          11           1           2           1
 -2.197747997905591E-006          14           1           2           1
  9.358638837400832E-003          17           1           2           1
  5.349887199912473E-015          18           1           2           1
 -0.140627674207062               20           1           2           1
  1.904726376622534E-015          23           1           2           1
